6
Lattice="10.000000 0.000000 0.000000 0.000000 10.000000 0.000000 0.000000 0.000000 10.000000" Properties=species:S:1:pos:R:3:dft_forces:R:3 dft_energy=-26104.95720801
C 4.62940 5.12508 5.64085 0.17971 -0.43925 -0.72976
Cl 6.62757 6.23759 4.91269 -0.05005 -0.02490 0.04401
H 4.44646 4.91975 4.55614 0.06649 0.27170 1.54506
H 5.31849 4.42682 6.17707 -1.18560 0.94110 -0.45705
H 4.30426 6.08710 6.06089 0.33010 -0.95199 -0.23788
Cl 2.58795 4.14414 6.29435 0.65935 0.20334 -0.16437
6
Lattice="10.000000 0.000000 0.000000 0.000000 10.000000 0.000000 0.000000 0.000000 10.000000" Properties=species:S:1:pos:R:3:dft_forces:R:3 dft_energy=-26104.96173741
C 6.01321 2.19648 6.24768 1.00065 -2.70057 -1.94670
Cl 8.24448 2.38748 6.52343 -0.14545 0.17590 0.00009
H 5.76535 3.21222 6.26311 0.04830 0.93434 0.21249
H 6.18240 1.62950 5.29524 -0.31121 1.29079 1.01770
H 5.98383 1.50458 7.05206 -0.20970 0.34987 0.75964
Cl 3.72990 1.83831 5.97557 -0.38258 -0.05033 -0.04322
6
Lattice="10.000000 0.000000 0.000000 0.000000 10.000000 0.000000 0.000000 0.000000 10.000000" Properties=species:S:1:pos:R:3:dft_forces:R:3 dft_energy=-26104.70860528
C 2.60289 6.46748 3.60688 0.46432 0.15054 -0.81682
Cl 4.85363 6.42504 4.16070 -0.72143 0.16780 -0.09652
H 2.40186 5.64382 4.36733 0.16089 1.65963 -1.39174
H 2.40131 7.58892 3.84000 0.62332 -2.65441 -0.39395
H 2.86847 6.16520 2.51285 -0.68649 0.72734 2.57132
Cl 0.25366 6.47453 2.84777 0.15939 -0.05089 0.12771
6
Lattice="10.000000 0.000000 0.000000 0.000000 10.000000 0.000000 0.000000 0.000000 10.000000" Properties=species:S:1:pos:R:3:dft_forces:R:3 dft_energy=-26104.87361256
C 2.02546 4.88630 3.71346 -0.63750 -3.68831 3.64803
Cl 2.88330 6.54406 5.27534 -0.14368 -0.18858 -0.26877
H 2.68927 4.10593 4.23192 -1.08000 1.79063 -1.19860
H 1.02572 4.98620 4.15051 0.76888 0.18722 -0.38477
H 2.32653 5.45953 2.93616 0.93895 1.48517 -1.98882
Cl 1.23196 3.19392 2.32252 0.15336 0.41388 0.19294
6
Lattice="10.000000 0.000000 0.000000 0.000000 10.000000 0.000000 0.000000 0.000000 10.000000" Properties=species:S:1:pos:R:3:dft_forces:R:3 dft_energy=-26104.70279764
C 5.95031 3.70851 5.09578 -4.46504 6.29253 -2.71283
Cl 6.19824 4.58587 7.30751 -0.02415 -0.04066 -0.01565
H 4.83931 3.73918 5.19876 1.45657 -0.28935 0.13021
H 6.35429 4.70393 4.73367 -0.21402 -1.95440 0.57444
H 6.46507 2.95335 5.40769 3.07662 -4.14180 1.56928
Cl 5.67001 2.87037 2.97059 0.17001 0.13368 0.45457
6
Lattice="10.000000 0.000000 0.000000 0.000000 10.000000 0.000000 0.000000 0.000000 10.000000" Properties=species:S:1:pos:R:3:dft_forces:R:3 dft_energy=-26105.02322931
C 6.56783 4.04094 5.56914 -0.34974 0.35209 -1.16487
Cl 7.88485 5.97444 5.66988 -0.20258 -0.43955 0.07210
H 6.70975 4.00964 4.50872 0.15107 -0.00151 -0.08876
H 7.20568 3.41472 6.14798 0.03243 0.23434 0.58216
H 5.70039 4.59520 5.87448 0.33330 -0.13169 0.57914
Cl 5.12909 2.19494 5.32970 0.03552 -0.01368 0.02023
6
Lattice="10.000000 0.000000 0.000000 0.000000 10.000000 0.000000 0.000000 0.000000 10.000000" Properties=species:S:1:pos:R:3:dft_forces:R:3 dft_energy=-26105.01300112
C 5.05584 3.79292 3.58903 0.66347 -1.94019 0.46009
Cl 6.77233 5.35841 4.07221 0.21611 0.19381 0.10308
H 5.01508 4.23282 2.59870 0.05016 -0.00404 0.69910
H 5.79924 2.96830 3.82416 -1.15473 1.41004 -0.70994
H 4.51003 4.12344 4.46264 0.17512 0.42169 -0.56682
Cl 3.40484 2.41851 3.07684 0.04987 -0.08131 0.01449
6
Lattice="10.000000 0.000000 0.000000 0.000000 10.000000 0.000000 0.000000 0.000000 10.000000" Properties=species:S:1:pos:R:3:dft_forces:R:3 dft_energy=-26103.62859299
C 4.78772 6.34689 3.23612 -11.65634 -8.00698 -3.11923
Cl 5.89289 5.85702 1.13800 0.13227 -0.00221 -0.02388
H 5.47322 6.94875 3.34377 6.72601 6.12966 1.40874
H 3.72998 6.60676 2.51092 3.91270 -0.60856 2.51997
H 4.82633 5.22140 3.46538 0.31263 2.41602 -0.37661
Cl 3.54841 6.69344 5.13166 0.57272 0.07207 -0.40899
6
Lattice="10.000000 0.000000 0.000000 0.000000 10.000000 0.000000 0.000000 0.000000 10.000000" Properties=species:S:1:pos:R:3:dft_forces:R:3 dft_energy=-26104.92664458
C 3.19598 7.44472 2.06746 -0.22826 -3.28095 3.10097
Cl 5.37523 7.77236 2.85010 0.02093 0.15323 -0.10864
H 3.38937 6.36027 2.37551 -0.56010 2.02954 -0.78520
H 2.84234 8.08094 2.86010 0.02980 0.15153 -0.44089
H 3.42039 7.73110 1.11160 0.50870 0.85765 -1.82278
Cl 1.02223 6.96235 1.40018 0.22893 0.08900 0.05654
6
Lattice="10.000000 0.000000 0.000000 0.000000 10.000000 0.000000 0.000000 0.000000 10.000000" Properties=species:S:1:pos:R:3:dft_forces:R:3 dft_energy=-26104.39014804
C 7.35283 5.41927 6.37670 -5.50739 -3.40303 4.71869
Cl 7.01037 7.69074 7.26090 0.02306 0.12835 -0.06925
H 6.89908 5.69579 5.55300 -1.50060 1.37791 -4.01470
H 8.25983 5.57884 6.66521 5.29480 0.82389 1.07563
H 6.59858 5.21416 7.25448 1.84822 0.01831 -2.08847
Cl 7.67726 3.24447 5.65620 -0.15809 1.05457 0.37811
6
Lattice="10.000000 0.000000 0.000000 0.000000 10.000000 0.000000 0.000000 0.000000 10.000000" Properties=species:S:1:pos:R:3:dft_forces:R:3 dft_energy=-26104.89242161
C 4.86615 5.10355 4.92577 0.23871 0.15841 1.82725
Cl 5.70469 2.89862 4.30345 -0.09681 0.40836 -0.10344
H 4.33475 5.33202 4.00583 0.84867 -0.07649 0.11340
H 4.30143 4.51726 5.65072 0.34803 0.34704 -0.40854
H 5.87565 5.44355 5.27794 -1.31881 -0.63026 -1.19991
Cl 4.11424 7.05798 5.92668 -0.01979 -0.20706 -0.22876
6
Lattice="10.000000 0.000000 0.000000 0.000000 10.000000 0.000000 0.000000 0.000000 10.000000" Properties=species:S:1:pos:R:3:dft_forces:R:3 dft_energy=-26105.07040525
C 4.90307 4.99819 5.08291 -0.86862 -0.33111 0.05828
Cl 5.71305 2.94435 4.25702 -0.16136 0.38182 0.11988
H 4.48415 5.28605 4.13468 0.27181 -0.16189 0.11036
H 4.29415 4.48285 5.80172 -0.05462 -0.01250 -0.17708
H 5.87599 5.25482 5.39279 0.71149 0.30850 -0.07333
Cl 4.08932 7.05560 5.90865 0.10129 -0.18483 -0.03811
6
Lattice="10.000000 0.000000 0.000000 0.000000 10.000000 0.000000 0.000000 0.000000 10.000000" Properties=species:S:1:pos:R:3:dft_forces:R:3 dft_energy=-26104.73032930
C 4.60084 4.79194 5.20157 2.39850 1.32451 -2.31544
Cl 5.71356 2.99831 4.27244 -0.41879 0.03463 0.36043
H 4.20422 4.98075 4.15937 -0.05346 -0.38293 2.03335
H 4.10768 4.36163 6.05645 -0.17442 -0.08945 -0.34990
H 5.60406 5.26384 5.31923 -1.32361 -0.98066 0.14532
Cl 4.21220 7.08339 5.84717 -0.42822 0.09390 0.12623
6
Lattice="10.000000 0.000000 0.000000 0.000000 10.000000 0.000000 0.000000 0.000000 10.000000" Properties=species:S:1:pos:R:3:dft_forces:R:3 dft_energy=-26105.09490683
C 4.79772 5.18439 5.19394 0.27757 2.25393 -0.82740
Cl 5.75717 2.86780 4.10808 -0.04533 0.08581 0.03579
H 4.41128 5.39206 4.15183 0.68667 -0.60619 1.53852
H 4.22653 4.49111 5.80351 0.51199 0.17955 -0.18223
H 5.90052 5.38968 5.35333 -1.83417 -0.71569 -0.14795
Cl 4.08420 7.06197 6.02055 0.40327 -1.19741 -0.41674
6
Lattice="10.000000 0.000000 0.000000 0.000000 10.000000 0.000000 0.000000 0.000000 10.000000" Properties=species:S:1:pos:R:3:dft_forces:R:3 dft_energy=-26105.05246991
C 4.89670 5.01314 5.09025 -1.62988 -0.71030 1.04594
Cl 5.71632 2.94745 4.25766 -0.09386 0.24672 0.05291
H 4.48619 5.26453 4.13042 0.13715 -0.07301 0.07586
H 4.28433 4.45204 5.83038 0.65006 0.64262 -1.03186
H 5.86905 5.28878 5.37917 0.77530 0.20453 -0.00470
Cl 4.08863 7.04795 5.90522 0.16123 -0.31056 -0.13815
6
Lattice="10.000000 0.000000 0.000000 0.000000 10.000000 0.000000 0.000000 0.000000 10.000000" Properties=species:S:1:pos:R:3:dft_forces:R:3 dft_energy=-26105.16720288
C 5.22840 5.19562 4.90939 1.01168 -0.59792 -2.58438
Cl 7.29325 5.20020 4.83873 -1.11139 0.27372 0.34788
H 5.12238 4.31188 4.19447 -0.10663 1.70059 1.29236
H 4.95956 4.96166 5.92709 0.17718 0.27473 -0.00675
H 4.93240 6.19809 4.46065 0.54870 -1.64471 0.92952
Cl 2.62893 4.78293 4.60195 -0.51955 -0.00641 0.02136
6
Lattice="10.000000 0.000000 0.000000 0.000000 10.000000 0.000000 0.000000 0.000000 10.000000" Properties=species:S:1:pos:R:3:dft_forces:R:3 dft_energy=-26105.29299692
C 5.27898 5.10979 4.78292 1.02955 -0.83154 -1.42713
Cl 7.29240 5.22672 4.88643 -1.07743 0.17261 0.08136
H 5.21801 4.11901 4.19891 -0.24788 2.06338 1.09875
H 4.93612 5.06241 5.81233 0.23383 -0.01520 -0.34433
H 4.94952 6.03772 4.23919 0.55378 -1.35760 0.61303
Cl 2.61010 4.79268 4.60655 -0.49185 -0.03165 -0.02167
6
Lattice="10.000000 0.000000 0.000000 0.000000 10.000000 0.000000 0.000000 0.000000 10.000000" Properties=species:S:1:pos:R:3:dft_forces:R:3 dft_energy=-26105.35196417
C 5.28646 5.10839 4.79077 0.71342 -1.05472 0.26694
Cl 7.27188 5.16449 4.79751 -0.86548 0.06654 -0.09206
H 5.06969 3.99786 4.63149 0.32584 2.05924 0.15173
H 5.05250 5.45269 5.82087 0.08336 -0.30109 -1.11280
H 4.96660 5.79132 3.97798 0.39034 -0.75132 0.78014
Cl 2.62851 4.85473 4.68769 -0.64748 -0.01864 0.00605
6
Lattice="10.000000 0.000000 0.000000 0.000000 10.000000 0.000000 0.000000 0.000000 10.000000" Properties=species:S:1:pos:R:3:dft_forces:R:3 dft_energy=-26105.00931706
C 4.65550 4.88828 4.69951 -1.74401 -0.91419 -0.56519
Cl 7.46112 5.46458 4.82931 0.03039 -0.02843 -0.01910
H 4.87378 3.97963 3.99001 0.22153 2.39467 1.49036
H 4.83134 4.67012 5.80279 0.29423 0.78885 -1.95908
H 4.62239 5.95850 4.27471 0.90786 -2.21886 0.98070
Cl 2.67469 4.64724 4.69713 0.29000 -0.02204 0.07230
6
Lattice="10.000000 0.000000 0.000000 0.000000 10.000000 0.000000 0.000000 0.000000 10.000000" Properties=species:S:1:pos:R:3:dft_forces:R:3 dft_energy=-26105.20302436
C 4.63034 4.96120 4.81684 -1.39145 1.53321 0.18162
Cl 7.46775 5.23949 4.75016 0.16186 0.01735 0.02275
H 4.81435 4.34392 3.89742 0.70152 0.66193 1.75567
H 4.85465 4.74571 5.90009 0.06480 -0.69479 -1.79191
H 4.79173 6.07775 4.72502 -0.02478 -1.64198 -0.44440
Cl 2.67279 4.83172 4.72358 0.48806 0.12427 0.27627
6
Lattice="10.000000 0.000000 0.000000 0.000000 10.000000 0.000000 0.000000 0.000000 10.000000" Properties=species:S:1:pos:R:3:dft_forces:R:3 dft_energy=-26104.93156121
C 4.35555 4.68439 4.85980 8.08259 0.75854 0.91495
Cl 7.47521 4.85650 4.97763 0.23002 0.01223 -0.02152
H 4.89169 4.55299 3.88794 -1.20090 -0.25968 0.34337
H 4.85043 3.92382 5.55009 -0.65179 0.95980 -0.95008
H 4.85851 5.67335 5.17959 -1.00662 -1.43505 -0.22373
Cl 2.75446 4.68112 5.00383 -5.45332 -0.03584 -0.06299
6
Lattice="10.000000 0.000000 0.000000 0.000000 10.000000 0.000000 0.000000 0.000000 10.000000" Properties=species:S:1:pos:R:3:dft_forces:R:3 dft_energy=-26105.14374914
C 4.39142 4.81061 4.94660 6.19919 -0.93376 -0.10018
Cl 7.44063 4.80075 5.25198 0.29845 0.00379 0.03701
H 4.97477 4.50137 3.99460 -0.89085 0.77849 1.57442
H 4.77104 4.04509 5.69896 -0.54184 1.28358 -0.75246
H 4.74218 5.82980 5.23237 -0.33647 -0.94038 -0.17312
Cl 2.78009 4.68768 4.69130 -4.72848 -0.19173 -0.58568
6
Lattice="10.000000 0.000000 0.000000 0.000000 10.000000 0.000000 0.000000 0.000000 10.000000" Properties=species:S:1:pos:R:3:dft_forces:R:3 dft_energy=-26105.22736308
C 4.45445 4.69287 4.93568 5.41370 -0.66954 -0.08268
Cl 7.38643 4.96049 5.02628 0.52452 0.04734 0.02153
H 4.95519 4.22338 4.01362 -0.90271 0.85463 1.37770
H 4.92390 4.16227 5.81381 -0.66292 0.47837 -0.96492
H 4.82001 5.72592 5.03122 -0.28874 -0.42813 -0.27232
Cl 2.80694 4.57536 4.92261 -4.08385 -0.28266 -0.07931
6
Lattice="10.000000 0.000000 0.000000 0.000000 10.000000 0.000000 0.000000 0.000000 10.000000" Properties=species:S:1:pos:R:3:dft_forces:R:3 dft_energy=-26105.34514597
C 5.51593 4.80328 5.02082 -2.34417 -0.14292 1.83958
Cl 7.23998 4.76922 4.82287 2.01424 0.10647 -0.55930
H 5.05422 3.90096 4.51979 0.39304 1.61807 0.35655
H 5.37747 4.64804 6.14890 -0.21863 0.31783 -1.73515
H 5.07764 5.82599 4.75660 0.57152 -1.89619 0.06402
Cl 2.57070 4.72173 5.08107 -0.41600 -0.00326 0.03429
6
Lattice="10.000000 0.000000 0.000000 0.000000 10.000000 0.000000 0.000000 0.000000 10.000000" Properties=species:S:1:pos:R:3:dft_forces:R:3 dft_energy=-26105.15362220
C 5.39978 5.03998 5.17214 -3.95217 -2.15629 -0.26525
Cl 6.63509 6.16408 5.31175 2.63550 2.43834 0.21687
H 5.57714 4.21362 5.93408 -0.34983 0.76917 -1.58522
H 4.39044 5.50720 5.44146 1.50676 -0.62287 -0.21791
H 5.21806 4.72496 4.08371 0.66740 -0.02375 1.96870
Cl 3.22415 3.24466 4.53995 -0.50766 -0.40460 -0.11719
6
Lattice="10.000000 0.000000 0.000000 0.000000 10.000000 0.000000 0.000000 0.000000 10.000000" Properties=species:S:1:pos:R:3:dft_forces:R:3 dft_energy=-26104.96562838
C 4.79620 5.00019 4.89323 -0.84487 -0.18270 -0.21770
Cl 5.41126 2.80361 5.49349 -0.12115 0.28685 -0.06970
H 4.09851 4.62505 4.08001 1.52471 0.58838 1.31577
H 4.35202 5.18105 5.88766 0.49262 -0.25988 -0.94095
H 5.86774 5.22141 4.75341 -1.16171 -0.22190 -0.14619
Cl 4.17842 7.19556 4.30675 0.11040 -0.21075 0.05876
6
Lattice="10.000000 0.000000 0.000000 0.000000 10.000000 0.000000 0.000000 0.000000 10.000000" Properties=species:S:1:pos:R:3:dft_forces:R:3 dft_energy=-26105.54447070
C 4.38720 5.33031 4.72639 0.09739 -1.07889 -1.41284
Cl 6.54819 3.15180 5.50027 -0.01470 -0.00367 0.00171
H 3.87904 4.36808 5.00960 0.11802 1.33029 -0.21294
H 5.10836 5.58259 5.50775 -0.30404 0.22886 -0.36743
H 4.88230 5.14232 3.72308 -0.39842 0.33527 1.49905
Cl 3.19282 6.73366 4.37017 0.50175 -0.81187 0.49245
6
Lattice="10.000000 0.000000 0.000000 0.000000 10.000000 0.000000 0.000000 0.000000 10.000000" Properties=species:S:1:pos:R:3:dft_forces:R:3 dft_energy=-26105.52819901
C 4.65533 5.51427 4.66112 1.83672 -2.20824 1.04023
Cl 5.72796 2.85450 5.80410 0.06802 -0.17662 0.06563
H 4.68191 4.70047 3.92155 -0.18544 0.56849 0.00652
H 4.17925 5.03779 5.54886 0.30132 0.83068 -0.60202
H 5.72674 5.74577 4.88872 -1.07279 -0.26279 0.01846
Cl 3.90178 6.95752 4.08508 -0.94782 1.24848 -0.52882
6
Lattice="10.000000 0.000000 0.000000 0.000000 10.000000 0.000000 0.000000 0.000000 10.000000" Properties=species:S:1:pos:R:3:dft_forces:R:3 dft_energy=-26105.05841472
C 4.76002 4.58576 5.14032 1.37500 -0.39218 -2.26157
Cl 5.35598 2.61759 5.51805 -0.94646 2.22262 -0.14206
H 4.63958 4.56149 3.97153 0.21562 0.04015 2.61514
H 3.84345 4.92691 5.64423 0.45463 -0.82802 0.00652
H 5.66176 5.19328 5.43057 -1.10103 -0.89993 -0.28917
Cl 4.25089 7.53183 4.18923 0.00224 -0.14264 0.07113
6
Lattice="10.000000 0.000000 0.000000 0.000000 10.000000 0.000000 0.000000 0.000000 10.000000" Properties=species:S:1:pos:R:3:dft_forces:R:3 dft_energy=-26105.14637226
C 4.71702 5.25572 5.34718 -0.58025 0.07262 0.84840
Cl 4.12784 3.81815 2.73096 0.00048 0.03830 0.01456
H 5.07492 5.84183 4.45000 -0.45835 -0.40084 1.52088
H 3.61564 5.34624 5.61721 1.63666 -0.25656 -0.93229
H 5.08770 4.19658 5.27403 -0.38426 1.33238 0.45333
Cl 5.35529 6.08436 7.14169 -0.21428 -0.78589 -1.90488
6
Lattice="10.000000 0.000000 0.000000 0.000000 10.000000 0.000000 0.000000 0.000000 10.000000" Properties=species:S:1:pos:R:3:dft_forces:R:3 dft_energy=-26105.04763760
C 4.90326 5.01841 5.27306 -0.18559 -0.06263 1.80429
Cl 4.25605 3.77776 2.83247 0.15625 -0.13717 -0.07130
H 5.67706 4.27398 5.62434 -1.50927 0.79941 -0.89196
H 5.22640 5.71739 4.49848 -0.26263 -0.25391 0.46165
H 3.79218 4.76847 5.25793 2.02286 0.36421 0.12208
Cl 5.13790 6.22292 7.06417 -0.22163 -0.70990 -1.42477
6
Lattice="10.000000 0.000000 0.000000 0.000000 10.000000 0.000000 0.000000 0.000000 10.000000" Properties=species:S:1:pos:R:3:dft_forces:R:3 dft_energy=-26105.15501021
C 4.80591 4.84421 4.81790 -1.42470 -0.37294 -0.42472
Cl 4.29185 3.83339 3.21404 0.34874 -0.04417 -0.17263
H 5.90691 4.90698 4.83590 -0.96861 -0.34938 -0.05856
H 4.29793 5.80894 4.59696 0.63165 -1.11505 0.34757
H 4.26656 4.20114 5.57106 1.13405 1.11641 -0.88372
Cl 5.14146 6.22184 6.84753 0.27886 0.76514 1.19207
6
Lattice="10.000000 0.000000 0.000000 0.000000 10.000000 0.000000 0.000000 0.000000 10.000000" Properties=species:S:1:pos:R:3:dft_forces:R:3 dft_energy=-26105.01266806
C 4.73459 4.99005 4.98933 1.08313 -1.24194 0.45264
Cl 4.29426 3.71793 3.07561 0.12018 0.18631 0.26372
H 5.84872 4.91423 4.85321 -1.79858 0.09194 0.11513
H 4.17197 5.79555 4.59335 -0.04627 0.43029 -0.24480
H 4.17792 4.23900 5.57113 0.72976 0.68505 -0.40635
Cl 5.17097 6.28699 6.92748 -0.08822 -0.15166 -0.18034
6
Lattice="10.000000 0.000000 0.000000 0.000000 10.000000 0.000000 0.000000 0.000000 10.000000" Properties=species:S:1:pos:R:3:dft_forces:R:3 dft_energy=-26105.01187300
C 4.55567 4.95331 4.66707 -2.96290 0.02943 -1.73217
Cl 3.89717 3.76648 3.01073 0.86565 0.63224 1.41918
H 5.58443 5.18115 4.47052 0.08016 0.20777 -0.22884
H 3.71757 5.70683 4.37762 2.13459 -1.09679 1.21976
H 4.39137 4.33998 5.55703 -0.05056 0.28914 -0.51997
Cl 5.64305 6.24295 7.11896 -0.06694 -0.06178 -0.15797
6
Lattice="10.000000 0.000000 0.000000 0.000000 10.000000 0.000000 0.000000 0.000000 10.000000" Properties=species:S:1:pos:R:3:dft_forces:R:3 dft_energy=-26104.39891383
C 5.12667 5.07430 5.16575 1.60775 0.48418 -0.44691
Cl 3.42283 2.86693 4.55395 0.46831 0.64100 0.21487
H 4.38774 5.76327 5.61538 0.32056 -1.16398 -0.51221
H 5.73292 4.33755 5.77955 -1.14930 1.24877 -0.78271
H 5.32714 5.05890 4.05368 -0.61804 0.06326 1.70119
Cl 6.52150 7.10339 5.48877 -0.62928 -1.27322 -0.17422
6
Lattice="10.000000 0.000000 0.000000 0.000000 10.000000 0.000000 0.000000 0.000000 10.000000" Properties=species:S:1:pos:R:3:dft_forces:R:3 dft_energy=-26105.07211398
C 4.62074 4.77512 5.19528 2.43472 -2.49096 -0.79053
Cl 4.01828 2.81211 4.79551 0.25411 1.45700 0.34847
H 3.72177 5.32691 4.94915 0.30853 0.08118 0.32957
H 4.98376 4.62305 6.26783 -0.83584 0.70596 -1.79276
H 5.50325 4.83286 4.42366 -2.11549 0.19457 1.85301
Cl 6.13269 7.27028 5.23175 -0.04602 0.05224 0.05225
6
Lattice="10.000000 0.000000 0.000000 0.000000 10.000000 0.000000 0.000000 0.000000 10.000000" Properties=species:S:1:pos:R:3:dft_forces:R:3 dft_energy=-26104.97115810
C 4.95895 5.54847 5.03102 0.34694 0.83392 2.52665
Cl 4.18299 2.84597 3.73371 0.01516 0.19414 0.04381
H 3.88326 5.75486 5.40425 2.02757 -0.76485 -1.26657
H 5.47203 4.64334 5.48773 -1.08815 1.17271 -1.17483
H 5.32401 5.89693 4.03245 -0.67207 -0.54408 1.13175
Cl 5.84001 6.93140 6.36956 -0.62945 -0.89183 -1.26081
6
Lattice="10.000000 0.000000 0.000000 0.000000 10.000000 0.000000 0.000000 0.000000 10.000000" Properties=species:S:1:pos:R:3:dft_forces:R:3 dft_energy=-26105.13089129
C 4.59603 4.54620 5.12086 -0.71658 -1.14698 -1.37766
Cl 3.53869 3.21589 4.24302 -0.11866 -0.24739 0.26831
H 3.99424 5.41237 4.71598 1.48114 -0.57428 1.22322
H 4.48067 4.25634 6.22648 0.67492 0.97312 -1.92670
H 5.55773 4.31956 4.53527 -1.25737 1.07150 1.81331
Cl 6.62566 6.96666 5.81408 -0.06345 -0.07596 -0.00048
6
Lattice="10.000000 0.000000 0.000000 0.000000 10.000000 0.000000 0.000000 0.000000 10.000000" Properties=species:S:1:pos:R:3:dft_forces:R:3 dft_energy=-26105.30576544
C 4.43996 5.02838 5.12489 -1.63282 -0.72879 -1.33405
Cl 7.67486 4.06573 5.32303 -0.16605 0.04928 -0.00928
H 4.68909 4.35909 4.23084 -0.01101 1.17112 1.59252
H 4.35495 4.43721 6.07636 0.75506 1.11730 -0.99461
H 4.86391 6.05934 5.05612 0.02026 -1.41446 0.57162
Cl 2.54589 5.41473 4.79407 1.03456 -0.19445 0.17379
6
Lattice="10.000000 0.000000 0.000000 0.000000 10.000000 0.000000 0.000000 0.000000 10.000000" Properties=species:S:1:pos:R:3:dft_forces:R:3 dft_energy=-26105.49873143
C 4.47440 4.87180 5.04187 1.15139 -0.28913 -1.55143
Cl 7.54002 4.47125 5.20633 0.07522 -0.01958 0.01851
H 4.92103 4.38055 5.89294 -0.80232 -0.09883 0.70555
H 5.06350 5.79209 4.91664 -0.89405 0.05852 0.09186
H 4.79866 4.23701 4.19394 -0.57070 0.37028 0.34494
Cl 2.64419 5.07495 4.94913 1.04046 -0.02126 0.39057
6
Lattice="10.000000 0.000000 0.000000 0.000000 10.000000 0.000000 0.000000 0.000000 10.000000" Properties=species:S:1:pos:R:3:dft_forces:R:3 dft_energy=-26105.30289923
C 5.47145 4.55900 5.06961 -0.19879 1.27021 0.31080
Cl 7.37248 4.81968 5.46809 -1.74710 -0.54293 -0.64646
H 5.13645 3.67017 4.51593 1.04586 0.37102 -0.46392
H 5.01325 4.43262 6.02653 0.02105 0.05902 0.91005
H 5.02123 5.51918 4.69891 0.88832 -1.04932 -0.18640
Cl 2.46288 4.85489 4.67121 -0.00935 -0.10800 0.07593
6
Lattice="10.000000 0.000000 0.000000 0.000000 10.000000 0.000000 0.000000 0.000000 10.000000" Properties=species:S:1:pos:R:3:dft_forces:R:3 dft_energy=-26105.48536422
C 5.43054 4.76535 5.16024 0.92165 -0.59545 -1.99554
Cl 7.30834 4.72218 5.48758 -1.39167 0.26717 -0.05321
H 4.83179 5.36285 5.78760 0.02619 0.60944 1.30830
H 5.23891 5.13644 4.14466 0.62386 0.06986 0.31319
H 5.09670 3.74503 5.12589 0.05948 -0.35565 0.48134
Cl 2.54098 4.86478 4.62621 -0.23951 0.00464 -0.05407
6
Lattice="10.000000 0.000000 0.000000 0.000000 10.000000 0.000000 0.000000 0.000000 10.000000" Properties=species:S:1:pos:R:3:dft_forces:R:3 dft_energy=-26105.43401660
C 5.63220 4.86691 4.95134 0.74815 1.17485 0.50646
Cl 7.48277 4.58078 5.52014 -1.55772 0.40654 -0.26578
H 5.75938 4.93232 3.85204 -0.49202 -0.15755 0.92155
H 5.07239 4.02642 5.34502 0.08908 -0.08738 -0.40008
H 5.19413 5.81536 5.42015 1.05367 -1.34235 -0.77663
Cl 2.27382 4.95670 4.67697 0.15884 0.00589 0.01448
6
Lattice="10.000000 0.000000 0.000000 0.000000 10.000000 0.000000 0.000000 0.000000 10.000000" Properties=species:S:1:pos:R:3:dft_forces:R:3 dft_energy=-26105.22745157
C 4.84962 4.87859 4.10461 -0.25047 1.09567 0.38721
Cl 4.04271 3.89700 7.21636 -0.01296 0.05307 -0.02081
H 4.68373 5.16535 5.26472 0.75733 -1.11859 -2.70172
H 5.61175 4.12831 3.77839 -0.99552 0.26688 1.14812
H 3.85384 4.69974 3.60184 1.19203 0.20141 0.59531
Cl 5.63900 6.34936 3.15392 -0.69042 -0.49843 0.59190
6
Lattice="10.000000 0.000000 0.000000 0.000000 10.000000 0.000000 0.000000 0.000000 10.000000" Properties=species:S:1:pos:R:3:dft_forces:R:3 dft_energy=-26105.23680559
C 4.80485 5.04943 5.56393 2.67135 -2.97390 -1.18162
Cl 5.53307 4.57196 7.35795 -1.16138 0.67782 -1.73673
H 5.76741 5.22969 4.97653 -1.51534 -0.19469 0.90199
H 4.31202 4.11543 5.10580 0.76252 1.52579 1.14014
H 4.18731 5.89666 5.50560 -0.75826 0.97409 0.71757
Cl 4.16048 5.58102 2.43421 0.00110 -0.00910 0.15864
6
Lattice="10.000000 0.000000 0.000000 0.000000 10.000000 0.000000 0.000000 0.000000 10.000000" Properties=species:S:1:pos:R:3:dft_forces:R:3 dft_energy=-26105.09986781
C 5.28190 5.90618 5.05221 -0.99596 1.44876 -1.67253
Cl 4.36303 3.54781 6.93242 -0.01714 -0.06391 0.11238
H 4.23783 6.08692 5.36651 0.76114 0.76431 -0.09635
H 6.08939 6.62281 5.37341 -1.08216 -1.05190 -0.30505
H 5.32081 4.85265 5.25061 1.00627 -0.64374 -0.29442
Cl 5.12961 6.24890 3.02167 0.32786 -0.45352 2.25597
6
Lattice="10.000000 0.000000 0.000000 0.000000 10.000000 0.000000 0.000000 0.000000 10.000000" Properties=species:S:1:pos:R:3:dft_forces:R:3 dft_energy=-26105.44351718
C 4.97038 5.42231 4.46952 -0.15036 0.04220 1.25132
Cl 4.00714 3.72273 7.26105 0.02953 0.07230 -0.10533
H 4.28704 4.54642 4.19189 1.34363 1.37179 0.36829
H 4.40844 6.15998 5.13319 0.57142 -0.87549 -1.30959
H 5.87708 5.14620 5.09297 -1.24112 -0.11030 -1.09124
Cl 5.62163 6.28655 2.93518 -0.55309 -0.50049 0.88656
6
Lattice="10.000000 0.000000 0.000000 0.000000 10.000000 0.000000 0.000000 0.000000 10.000000" Properties=species:S:1:pos:R:3:dft_forces:R:3 dft_energy=-26104.73875018
C 5.24851 5.13157 4.23336 -0.61098 0.43655 -2.22019
Cl 4.12401 4.39058 8.14718 0.05390 0.03180 -0.19408
H 4.43028 5.83210 4.55871 1.30916 -0.77017 -0.08757
H 6.31630 5.36422 4.48768 -1.48125 -0.47551 0.10092
H 4.87772 4.05473 4.18574 0.94819 1.61051 0.09008
Cl 5.38061 5.73430 2.16278 -0.21902 -0.83319 2.31084
6
Lattice="10.000000 0.000000 0.000000 0.000000 10.000000 0.000000 0.000000 0.000000 10.000000" Properties=species:S:1:pos:R:3:dft_forces:R:3 dft_energy=-26105.00218814
C 4.83667 5.11170 4.92960 -0.30092 1.70474 -0.08944
Cl 7.10464 4.36727 6.18296 0.07440 0.06164 0.07981
H 5.10035 4.15511 4.54540 -0.53114 -0.69224 0.35331
H 4.61023 5.33886 6.00301 -0.12919 -0.81806 -1.40382
H 5.52940 5.85366 4.51081 -0.77006 -0.03961 0.04447
Cl 2.94380 5.47517 3.83920 1.65691 -0.21647 1.01568
6
Lattice="10.000000 0.000000 0.000000 0.000000 10.000000 0.000000 0.000000 0.000000 10.000000" Properties=species:S:1:pos:R:3:dft_forces:R:3 dft_energy=-26105.04620111
C 4.99127 4.96278 5.00007 0.49326 1.27637 -0.08632
Cl 6.89900 4.07206 6.08273 -0.13672 0.07903 -0.09002
H 5.10438 4.21448 4.23649 -0.00124 0.18877 0.06955
H 4.42709 4.73013 5.88924 0.08534 0.15322 -0.25986
H 5.50359 5.95692 4.90409 -0.75462 -1.53954 0.14448
Cl 3.10288 5.83352 3.91639 0.31397 -0.15785 0.22216
6
Lattice="10.000000 0.000000 0.000000 0.000000 10.000000 0.000000 0.000000 0.000000 10.000000" Properties=species:S:1:pos:R:3:dft_forces:R:3 dft_energy=-26105.51470046
C 4.37552 5.31920 4.75882 1.68443 0.27268 0.94129
Cl 7.23253 3.96046 6.37758 -0.11402 0.05766 -0.08144
H 4.56703 4.23110 4.67084 -0.54437 0.69585 0.53482
H 4.19970 5.72872 5.79213 -0.10981 -1.00907 -1.00659
H 5.36227 5.76949 4.47933 -1.08882 -0.08839 -0.30575
Cl 3.00374 5.80082 3.70577 0.17259 0.07127 -0.08232
6
Lattice="10.000000 0.000000 0.000000 0.000000 10.000000 0.000000 0.000000 0.000000 10.000000" Properties=species:S:1:pos:R:3:dft_forces:R:3 dft_energy=-26105.49490716
C 4.42386 5.21947 4.58600 0.13920 -1.22517 1.93322
Cl 7.19886 3.93042 6.48270 -0.17141 0.13091 -0.13787
H 5.37354 5.16051 4.05618 -0.48656 -0.21503 -0.64641
H 4.05579 4.21623 4.92305 0.79625 0.89117 -0.46556
H 4.71112 5.76746 5.51112 -0.75771 -0.01864 -0.62151
Cl 3.02071 5.88128 3.67205 0.48023 0.43676 -0.06188
6
Lattice="10.000000 0.000000 0.000000 0.000000 10.000000 0.000000 0.000000 0.000000 10.000000" Properties=species:S:1:pos:R:3:dft_forces:R:3 dft_energy=-26105.08729709
C 4.92520 5.18616 5.76027 -1.10640 -0.78508 -0.98467
Cl 5.84842 6.52539 2.71434 -0.06043 -0.04393 0.14812
H 6.01907 5.45116 5.77451 -1.45264 -0.23543 0.18454
H 4.16226 6.00077 6.08142 1.64836 -1.57093 -0.15237
H 4.61450 4.80866 4.70044 0.79393 0.61990 2.11251
Cl 4.71772 3.57265 6.98386 0.17719 2.01547 -1.30812
6
Lattice="10.000000 0.000000 0.000000 0.000000 10.000000 0.000000 0.000000 0.000000 10.000000" Properties=species:S:1:pos:R:3:dft_forces:R:3 dft_energy=-26105.59973625
C 5.24656 5.22621 4.38218 -0.95528 -0.48821 1.80531
Cl 5.45023 5.83125 2.73188 0.34918 0.15975 -0.60592
H 4.32994 5.71312 4.79408 0.71192 -0.61025 -0.31669
H 5.10606 4.11404 4.38272 0.21899 1.17515 -0.01521
H 6.06185 5.50489 5.08153 -0.32686 -0.25278 -0.83338
Cl 4.98707 4.27962 7.49859 0.00205 0.01633 -0.03411
6
Lattice="10.000000 0.000000 0.000000 0.000000 10.000000 0.000000 0.000000 0.000000 10.000000" Properties=species:S:1:pos:R:3:dft_forces:R:3 dft_energy=-26105.49028931
C 4.97245 4.89243 5.60892 0.47016 -0.88002 -3.12832
Cl 6.17627 5.78639 2.60987 -0.00775 -0.01794 0.06670
H 5.84439 4.23798 5.31375 -0.89639 0.81714 0.50280
H 5.30664 5.93387 5.61339 -0.33386 -0.33075 -0.27087
H 4.16634 4.65456 4.82392 1.30380 0.87256 1.15739
Cl 4.35904 4.45194 7.16251 -0.53597 -0.46100 1.67230
