6
Lattice="10.000000 0.000000 0.000000 0.000000 10.000000 0.000000 0.000000 0.000000 10.000000" Properties=species:S:1:pos:R:3:dft_forces:R:3 dft_energy=-26113.37605882
C -0.22737 -0.00867 0.00735 0.19118 0.02916 -0.02812
Cl 1.58196 0.05688 -0.01461 0.82683 0.02800 -0.00903
H -0.56507 -0.54424 -0.86417 -0.28461 -0.42721 -0.69134
H -0.54475 -0.51691 0.90167 -0.27564 -0.41722 0.73395
H -0.61046 0.99788 -0.00409 -0.31759 0.79322 -0.00757
Cl -3.24016 -0.11888 0.04131 -0.14016 -0.00595 0.00212
6
Lattice="10.000000 0.000000 0.000000 0.000000 10.000000 0.000000 0.000000 0.000000 10.000000" Properties=species:S:1:pos:R:3:dft_forces:R:3 dft_energy=-26113.37633490
C -0.22798 -0.00877 0.00762 0.18076 0.03634 -0.05221
Cl 1.58153 0.05686 -0.01462 0.82727 0.02778 -0.00817
H -0.56595 -0.54443 -0.86444 -0.27669 -0.41693 -0.67345
H -0.54556 -0.51697 0.90174 -0.27494 -0.41934 0.73817
H -0.61134 0.99812 -0.00410 -0.31056 0.77831 -0.00657
Cl -3.23655 -0.11875 0.04127 -0.14584 -0.00617 0.00223
6
Lattice="10.000000 0.000000 0.000000 0.000000 10.000000 0.000000 0.000000 0.000000 10.000000" Properties=species:S:1:pos:R:3:dft_forces:R:3 dft_energy=-26113.37810399
C -0.22840 -0.00875 0.00749 0.15144 0.03181 -0.03866
Cl 1.58135 0.05686 -0.01461 0.82511 0.02780 -0.00860
H -0.56702 -0.54480 -0.86496 -0.26595 -0.40329 -0.65217
H -0.54665 -0.51739 0.90243 -0.26096 -0.39983 0.70385
H -0.61244 0.99875 -0.00409 -0.29760 0.74988 -0.00671
Cl -3.23269 -0.11861 0.04122 -0.15204 -0.00639 0.00229
6
Lattice="10.000000 0.000000 0.000000 0.000000 10.000000 0.000000 0.000000 0.000000 10.000000" Properties=species:S:1:pos:R:3:dft_forces:R:3 dft_energy=-26113.36963199
C -0.23234 -0.00888 0.00745 0.21175 0.03372 -0.03230
Cl 1.57743 0.05670 -0.01457 0.85201 0.02885 -0.00922
H -0.56981 -0.54400 -0.86342 -0.28618 -0.44191 -0.71540
H -0.54947 -0.51666 0.90100 -0.27781 -0.43313 0.76215
H -0.61515 0.99693 -0.00402 -0.32008 0.81985 -0.00785
Cl -3.21651 -0.11803 0.04102 -0.17969 -0.00737 0.00262
6
Lattice="10.000000 0.000000 0.000000 0.000000 10.000000 0.000000 0.000000 0.000000 10.000000" Properties=species:S:1:pos:R:3:dft_forces:R:3 dft_energy=-26113.37096452
C -0.23555 -0.00895 0.00735 0.17385 0.02788 -0.01811
Cl 1.57601 0.05664 -0.01456 0.84159 0.02868 -0.00954
H -0.57387 -0.54474 -0.86435 -0.26202 -0.41703 -0.67632
H -0.55354 -0.51744 0.90219 -0.25062 -0.40265 0.70886
H -0.61926 0.99796 -0.00398 -0.29304 0.77154 -0.00786
Cl -3.19963 -0.11742 0.04082 -0.20976 -0.00841 0.00296
6
Lattice="10.000000 0.000000 0.000000 0.000000 10.000000 0.000000 0.000000 0.000000 10.000000" Properties=species:S:1:pos:R:3:dft_forces:R:3 dft_energy=-26113.36270457
C -0.23911 -0.00900 0.00721 0.19434 0.02249 -0.00053
Cl 1.57179 0.05648 -0.01452 0.87848 0.03023 -0.01057
H -0.57728 -0.54426 -0.86328 -0.27062 -0.44045 -0.71581
H -0.55702 -0.51710 0.90137 -0.25319 -0.41587 0.73242
H -0.62261 0.99671 -0.00392 -0.30260 0.81330 -0.00889
Cl -3.18163 -0.11677 0.04060 -0.24641 -0.00969 0.00338
6
Lattice="10.000000 0.000000 0.000000 0.000000 10.000000 0.000000 0.000000 0.000000 10.000000" Properties=species:S:1:pos:R:3:dft_forces:R:3 dft_energy=-26113.36446672
C -0.24341 -0.00866 0.00832 0.20365 -0.02194 -0.09661
Cl 1.57228 0.05646 -0.01460 0.82645 0.03009 -0.00643
H -0.58122 -0.54540 -0.86490 -0.22852 -0.38562 -0.62663
H -0.56066 -0.51777 0.90221 -0.24039 -0.41093 0.73101
H -0.62635 0.99764 -0.00397 -0.28579 0.79898 -0.00525
Cl -3.16648 -0.11623 0.04041 -0.27541 -0.01058 0.00392
6
Lattice="10.000000 0.000000 0.000000 0.000000 10.000000 0.000000 0.000000 0.000000 10.000000" Properties=species:S:1:pos:R:3:dft_forces:R:3 dft_energy=-26113.36725247
C -0.24533 -0.00831 0.00919 0.19676 -0.05935 -0.17348
Cl 1.57347 0.05648 -0.01466 0.78752 0.03012 -0.00314
H -0.58317 -0.54636 -0.86638 -0.19487 -0.33723 -0.54781
H -0.56237 -0.51832 0.90300 -0.23027 -0.40291 0.72250
H -0.62814 0.99858 -0.00402 -0.27225 0.78024 -0.00230
Cl -3.16031 -0.11600 0.04034 -0.28690 -0.01087 0.00422
6
Lattice="10.000000 0.000000 0.000000 0.000000 10.000000 0.000000 0.000000 0.000000 10.000000" Properties=species:S:1:pos:R:3:dft_forces:R:3 dft_energy=-26113.37606952
C -0.24838 -0.00849 0.00909 0.16555 -0.05184 -0.15571
Cl 1.57757 0.05662 -0.01472 0.69139 0.02655 -0.00241
H -0.58609 -0.54804 -0.86897 -0.15289 -0.28618 -0.46584
H -0.56529 -0.52006 0.90590 -0.18463 -0.34463 0.62078
H -0.63127 1.00175 -0.00407 -0.21983 0.66738 -0.00118
Cl -3.15238 -0.11572 0.04024 -0.29959 -0.01127 0.00435
6
Lattice="10.000000 0.000000 0.000000 0.000000 10.000000 0.000000 0.000000 0.000000 10.000000" Properties=species:S:1:pos:R:3:dft_forces:R:3 dft_energy=-26113.31401129
C -0.25542 -0.00934 0.00827 0.20527 -0.00297 -0.08743
Cl 1.55239 0.05571 -0.01434 1.05747 0.03776 -0.01001
H -0.59608 -0.54338 -0.86060 -0.23908 -0.46098 -0.74948
H -0.57545 -0.51577 0.89824 -0.24713 -0.47977 0.84891
H -0.64096 0.99230 -0.00361 -0.29700 0.92362 -0.00835
Cl -3.09033 -0.11347 0.03951 -0.47954 -0.01765 0.00636
6
Lattice="10.000000 0.000000 0.000000 0.000000 10.000000 0.000000 0.000000 0.000000 10.000000" Properties=species:S:1:pos:R:3:dft_forces:R:3 dft_energy=-26113.31228735
C -0.28769 -0.00906 0.00932 0.34386 -0.11995 -0.13993
Cl 1.55012 0.05537 -0.01450 0.89676 0.03819 -0.00499
H -0.60242 -0.55188 -0.87421 -0.16542 -0.26250 -0.43077
H -0.58190 -0.52360 0.91176 -0.18955 -0.31589 0.57046
H -0.64845 1.00673 -0.00376 -0.24438 0.68265 -0.00318
Cl -3.03552 -0.11150 0.03884 -0.64127 -0.02250 0.00842
6
Lattice="10.000000 0.000000 0.000000 0.000000 10.000000 0.000000 0.000000 0.000000 10.000000" Properties=species:S:1:pos:R:3:dft_forces:R:3 dft_energy=-26113.29310591
C -0.34037 -0.01495 0.00666 0.90761 0.28157 0.16729
Cl 1.57374 0.05626 -0.01474 0.41210 0.00842 -0.00976
H -0.60301 -0.55648 -0.88200 -0.24819 -0.42451 -0.68546
H -0.58291 -0.52944 0.92280 -0.19154 -0.31506 0.53293
H -0.65071 1.02095 -0.00372 -0.19694 0.47485 -0.01266
Cl -3.00260 -0.11028 0.03847 -0.68303 -0.02527 0.00766
6
Lattice="10.000000 0.000000 0.000000 0.000000 10.000000 0.000000 0.000000 0.000000 10.000000" Properties=species:S:1:pos:R:3:dft_forces:R:3 dft_energy=-26113.26564830
C -0.39164 -0.01103 0.01193 0.89337 -0.26151 -0.26834
Cl 1.60520 0.05708 -0.01536 0.14063 0.01651 0.00743
H -0.60469 -0.56932 -0.90296 -0.07983 -0.01378 -0.03298
H -0.58364 -0.53954 0.93995 -0.12068 -0.13771 0.27848
H -0.65236 1.03833 -0.00422 -0.16797 0.41811 0.00572
Cl -2.97872 -0.10947 0.03813 -0.66551 -0.02163 0.00969
6
Lattice="10.000000 0.000000 0.000000 0.000000 10.000000 0.000000 0.000000 0.000000 10.000000" Properties=species:S:1:pos:R:3:dft_forces:R:3 dft_energy=-26113.18488539
C -0.46707 -0.01683 0.01021 0.86934 0.02977 -0.02360
Cl 1.64276 0.05842 -0.01581 0.08999 0.00570 0.00067
H -0.60138 -0.56948 -0.90356 -0.12152 -0.29435 -0.48970
H -0.58083 -0.54092 0.94301 -0.11009 -0.28515 0.51228
H -0.65019 1.04324 -0.00416 -0.14702 0.56436 -0.00702
Cl -2.94913 -0.10838 0.03779 -0.58069 -0.02033 0.00736
6
Lattice="10.000000 0.000000 0.000000 0.000000 10.000000 0.000000 0.000000 0.000000 10.000000" Properties=species:S:1:pos:R:3:dft_forces:R:3 dft_energy=-26113.16562770
C -0.51709 -0.01867 0.01072 0.47879 0.02403 -0.00751
Cl 1.67745 0.05954 -0.01631 0.08449 0.00554 0.00043
H -0.59993 -0.57791 -0.91757 -0.03516 -0.07439 -0.13214
H -0.57916 -0.54899 0.95741 -0.03087 -0.07065 0.13520
H -0.64977 1.06005 -0.00440 -0.03902 0.13141 -0.00202
Cl -2.93736 -0.10797 0.03761 -0.45822 -0.01594 0.00604
6
Lattice="10.000000 0.000000 0.000000 0.000000 10.000000 0.000000 0.000000 0.000000 10.000000" Properties=species:S:1:pos:R:3:dft_forces:R:3 dft_energy=-26113.16572213
C -0.71003 -0.02561 0.01300 -0.47929 -0.01207 0.00184
Cl 1.71041 0.06070 -0.01673 0.46069 0.01910 -0.00424
H -0.60635 -0.57795 -0.91737 0.03112 -0.07104 -0.13217
H -0.58612 -0.54905 0.95747 0.03528 -0.06828 0.13522
H -0.65687 1.05991 -0.00426 0.03180 0.13520 -0.00258
Cl -2.90436 -0.10677 0.03725 -0.07960 -0.00290 0.00193
6
Lattice="10.000000 0.000000 0.000000 0.000000 10.000000 0.000000 0.000000 0.000000 10.000000" Properties=species:S:1:pos:R:3:dft_forces:R:3 dft_energy=-26113.18504733
C -0.75990 -0.02741 0.01364 -0.87003 -0.03460 -0.00422
Cl 1.72235 0.06120 -0.01681 0.58128 0.02316 -0.00579
H -0.60554 -0.56941 -0.90337 0.12701 -0.28422 -0.49237
H -0.58561 -0.54089 0.94304 0.14049 -0.27536 0.50981
H -0.65514 1.04320 -0.00405 0.10882 0.57378 -0.00963
Cl -2.86947 -0.10547 0.03691 -0.08757 -0.00275 0.00221
6
Lattice="10.000000 0.000000 0.000000 0.000000 10.000000 0.000000 0.000000 0.000000 10.000000" Properties=species:S:1:pos:R:3:dft_forces:R:3 dft_energy=-26113.26610217
C -0.83546 -0.02729 0.01691 -0.87397 -0.30752 -0.22875
Cl 1.75206 0.06229 -0.01716 0.66495 0.02764 -0.00559
H -0.60246 -0.56895 -0.90276 0.07815 -0.01297 -0.04500
H -0.58309 -0.53935 0.94005 0.13354 -0.12391 0.26755
H -0.65250 1.03870 -0.00416 0.13857 0.41265 0.00202
Cl -2.83188 -0.10417 0.03646 -0.14123 0.00411 0.00977
6
Lattice="10.000000 0.000000 0.000000 0.000000 10.000000 0.000000 0.000000 0.000000 10.000000" Properties=species:S:1:pos:R:3:dft_forces:R:3 dft_energy=-26113.29264500
C -0.88638 -0.03488 0.01295 -0.92388 0.23086 0.19918
Cl 1.77605 0.06323 -0.01738 0.68247 0.02552 -0.00827
H -0.60486 -0.55611 -0.88153 0.26435 -0.41407 -0.70752
H -0.58515 -0.52916 0.92262 0.22746 -0.30288 0.53425
H -0.65284 1.02093 -0.00363 0.16510 0.48351 -0.01681
Cl -2.80016 -0.10278 0.03633 -0.41550 -0.02293 -0.00083
6
Lattice="10.000000 0.000000 0.000000 0.000000 10.000000 0.000000 0.000000 0.000000 10.000000" Properties=species:S:1:pos:R:3:dft_forces:R:3 dft_energy=-26113.31230044
C -0.93895 -0.03274 0.01692 -0.33583 -0.13357 -0.12858
Cl 1.80895 0.06441 -0.01777 0.64035 0.02530 -0.00692
H -0.60574 -0.55172 -0.87401 0.17276 -0.25126 -0.43919
H -0.58692 -0.52354 0.91186 0.22440 -0.30106 0.56718
H -0.65392 1.00687 -0.00363 0.19523 0.68822 -0.00787
Cl -2.77675 -0.10207 0.03599 -0.89691 -0.02763 0.01538
6
Lattice="10.000000 0.000000 0.000000 0.000000 10.000000 0.000000 0.000000 0.000000 10.000000" Properties=species:S:1:pos:R:3:dft_forces:R:3 dft_energy=-26113.31362602
C -0.97118 -0.03515 0.01667 -0.20379 -0.02111 -0.08273
Cl 1.86394 0.06644 -0.01839 0.47860 0.01866 -0.00546
H -0.61262 -0.54368 -0.86025 0.25316 -0.44166 -0.75637
H -0.59438 -0.51617 0.89847 0.30060 -0.45979 0.84430
H -0.66022 0.99182 -0.00331 0.23170 0.94256 -0.01426
Cl -2.77886 -0.10204 0.03616 -1.06027 -0.03866 0.01453
6
Lattice="10.000000 0.000000 0.000000 0.000000 10.000000 0.000000 0.000000 0.000000 10.000000" Properties=species:S:1:pos:R:3:dft_forces:R:3 dft_energy=-26113.37600342
C -0.97816 -0.03477 0.01770 -0.15863 -0.06809 -0.15559
Cl 1.92576 0.06870 -0.01910 0.29957 0.01203 -0.00326
H -0.62245 -0.54912 -0.86855 0.15900 -0.26994 -0.46398
H -0.60399 -0.52122 0.90649 0.22202 -0.32810 0.61432
H -0.67038 1.00068 -0.00354 0.17129 0.67688 -0.00533
Cl -2.80411 -0.10305 0.03635 -0.69324 -0.02279 0.01384
6
Lattice="10.000000 0.000000 0.000000 0.000000 10.000000 0.000000 0.000000 0.000000 10.000000" Properties=species:S:1:pos:R:3:dft_forces:R:3 dft_energy=-26113.36717371
C -0.98114 -0.03484 0.01780 -0.19151 -0.07525 -0.16649
Cl 1.93356 0.06899 -0.01919 0.28716 0.01153 -0.00312
H -0.62541 -0.54763 -0.86584 0.20402 -0.32032 -0.55119
H -0.60708 -0.51970 0.90367 0.27363 -0.38229 0.71352
H -0.67323 0.99729 -0.00342 0.21506 0.79255 -0.00780
Cl -2.80003 -0.10289 0.03633 -0.78837 -0.02623 0.01507
6
Lattice="10.000000 0.000000 0.000000 0.000000 10.000000 0.000000 0.000000 0.000000 10.000000" Properties=species:S:1:pos:R:3:dft_forces:R:3 dft_energy=-26113.36424329
C -0.98308 -0.03533 0.01701 -0.19998 -0.03801 -0.09269
Cl 1.93982 0.06922 -0.01925 0.27559 0.01099 -0.00315
H -0.62742 -0.54679 -0.86429 0.23941 -0.36627 -0.63078
H -0.60887 -0.51924 0.90286 0.28571 -0.39117 0.72476
H -0.67497 0.99618 -0.00333 0.22763 0.81361 -0.01098
Cl -2.79879 -0.10281 0.03636 -0.82836 -0.02914 0.01284
6
Lattice="10.000000 0.000000 0.000000 0.000000 10.000000 0.000000 0.000000 0.000000 10.000000" Properties=species:S:1:pos:R:3:dft_forces:R:3 dft_energy=-26113.36241594
C -0.98738 -0.03602 0.01600 -0.19146 0.01038 0.00360
Cl 1.95492 0.06978 -0.01942 0.24685 0.00978 -0.00302
H -0.63140 -0.54593 -0.86255 0.28372 -0.41877 -0.72215
H -0.61258 -0.51884 0.90209 0.29917 -0.39570 0.72663
H -0.67862 0.99499 -0.00319 0.24282 0.82721 -0.01498
Cl -2.79827 -0.10275 0.03643 -0.88111 -0.03290 0.00991
6
Lattice="10.000000 0.000000 0.000000 0.000000 10.000000 0.000000 0.000000 0.000000 10.000000" Properties=species:S:1:pos:R:3:dft_forces:R:3 dft_energy=-26113.37065836
C -0.99094 -0.03619 0.01620 -0.17151 0.01339 -0.01271
Cl 1.97293 0.07044 -0.01962 0.21037 0.00839 -0.00257
H -0.63479 -0.54666 -0.86354 0.27426 -0.39580 -0.68227
H -0.61599 -0.51943 0.90300 0.29435 -0.38179 0.70143
H -0.68206 0.99596 -0.00317 0.23711 0.78750 -0.01393
Cl -2.80248 -0.10289 0.03648 -0.84458 -0.03168 0.01005
6
Lattice="10.000000 0.000000 0.000000 0.000000 10.000000 0.000000 0.000000 0.000000 10.000000" Properties=species:S:1:pos:R:3:dft_forces:R:3 dft_energy=-26113.36949326
C -0.99419 -0.03634 0.01641 -0.20762 0.01445 -0.02925
Cl 1.98983 0.07107 -0.01981 0.18046 0.00724 -0.00220
H -0.63886 -0.54626 -0.86258 0.29763 -0.41657 -0.71780
H -0.62013 -0.51897 0.90194 0.32434 -0.40957 0.75296
H -0.68607 0.99466 -0.00311 0.26026 0.83663 -0.01444
Cl -2.80393 -0.10293 0.03651 -0.85508 -0.03217 0.01073
6
Lattice="10.000000 0.000000 0.000000 0.000000 10.000000 0.000000 0.000000 0.000000 10.000000" Properties=species:S:1:pos:R:3:dft_forces:R:3 dft_energy=-26113.37775959
C -0.99808 -0.03646 0.01648 -0.15157 0.01351 -0.03180
Cl 2.00615 0.07167 -0.01999 0.15271 0.00619 -0.00187
H -0.64168 -0.54722 -0.86398 0.27794 -0.38199 -0.65863
H -0.62291 -0.51989 0.90340 0.30395 -0.37757 0.69492
H -0.68896 0.99618 -0.00312 0.24478 0.77097 -0.01311
Cl -2.80785 -0.10305 0.03656 -0.82781 -0.03112 0.01051
6
Lattice="10.000000 0.000000 0.000000 0.000000 10.000000 0.000000 0.000000 0.000000 10.000000" Properties=species:S:1:pos:R:3:dft_forces:R:3 dft_energy=-26113.37603816
C -0.99864 -0.03651 0.01672 -0.17890 0.01483 -0.05355
Cl 2.01040 0.07183 -0.02004 0.14605 0.00593 -0.00176
H -0.64283 -0.54697 -0.86349 0.28736 -0.39184 -0.67478
H -0.62413 -0.51955 0.90271 0.32122 -0.39730 0.73169
H -0.69009 0.99547 -0.00311 0.25567 0.79971 -0.01293
Cl -2.80804 -0.10306 0.03656 -0.83140 -0.03133 0.01133
6
Lattice="10.000000 0.000000 0.000000 0.000000 10.000000 0.000000 0.000000 0.000000 10.000000" Properties=species:S:1:pos:R:3:dft_forces:R:3 dft_energy=-26113.37584044
C -0.99919 -0.03650 0.01644 -0.18829 0.01184 -0.02683
Cl 2.01373 0.07196 -0.02007 0.14080 0.00574 -0.00174
H -0.64365 -0.54684 -0.86319 0.29595 -0.40257 -0.69446
H -0.62487 -0.51955 0.90268 0.32119 -0.39498 0.72677
H -0.69087 0.99523 -0.00308 0.26036 0.81117 -0.01410
Cl -2.80848 -0.10307 0.03658 -0.83001 -0.03120 0.01036
