3
Lattice="20.000000 0.000000 0.000000 0.000000 20.000000 0.000000 0.000000 0.000000 20.000000" energy=-11580.70167936 Properties=species:S:1:pos:R:3:forces:R:3
C   0.00000   0.00000   0.00000   -1.00000   -1.00000   -1.00000
O   1.00000   1.00000   1.00000   -2.00000    2.00000   -2.00000
H   2.00000   2.00000   2.00000    3.00000   -3.00000   -3.00000
2
Lattice="18.000000 0.000000 0.000000 0.000000 18.000000 0.000000 0.000000 0.000000 18.000000" energy=-11581.02323085 Properties=species:S:1:pos:R:3:forces:R:3
C   0.00000   0.00000   0.00000    0.00000    0.00000    0.00000
O   1.00000   1.00000  1.00000   -1.00000    1.00000    1.00000
